phonopy:
  version: 2.11.0
  frequency_unit_conversion_factor: 15.633302
  symmetry_tolerance: 1.00000e-05
  nac_unit_conversion_factor: 14.399652
  configuration:
    atom_name: "Mo O"
    dim: "4 4 1"
    eigenvectors: ".TRUE."
    band: "0 0 0  0.5 0.0 0.0"
    band_points: "2"
    force_sets: "READ"
    cell_filename: "POSCAR"
    nac: ".true."

physical_unit:
  atomic_mass: "AMU"
  length: "angstrom"
  force_constants: "eV/angstrom^2"

space_group:
  type: "Pnma"
  number: 62
  Hall_symbol: "-P 2ac 2n"

supercell_matrix:
- [   4,   0,   0 ]
- [   0,   4,   0 ]
- [   0,   0,   1 ]

primitive_cell:
  lattice:
  - [     3.914529174975785,     0.000000000000000,     0.000000000000000 ] # a
  - [    -0.000000000000000,     3.686188288557501,     0.000000000000000 ] # b
  - [     0.000000000000000,     0.000000000000000,    13.897459349863569 ] # c
  points:
  - symbol: Mo # 1
    coordinates: [  0.078604301539825,  0.250000000000000,  0.104922304938614 ]
    mass: 95.960000
  - symbol: Mo # 2
    coordinates: [  0.921395720460185,  0.750000000000000,  0.895077687061389 ]
    mass: 95.960000
  - symbol: Mo # 3
    coordinates: [  0.578604279539815,  0.750000000000000,  0.395077687061392 ]
    mass: 95.960000
  - symbol: Mo # 4
    coordinates: [  0.421395690460173,  0.250000000000000,  0.604922312938611 ]
    mass: 95.960000
  - symbol: O  # 5
    coordinates: [  0.499788526869523,  0.250000000000000,  0.432875235021382 ]
    mass: 15.999400
  - symbol: O  # 6
    coordinates: [  0.500211443130480,  0.750000000000000,  0.567124764978620 ]
    mass: 15.999400
  - symbol: O  # 7
    coordinates: [  0.999788556869527,  0.750000000000000,  0.067124764978619 ]
    mass: 15.999400
  - symbol: O  # 8
    coordinates: [  0.000211473130478,  0.250000000000000,  0.932875235021380 ]
    mass: 15.999400
  - symbol: O  # 9
    coordinates: [  0.520304219579579,  0.250000000000000,  0.088017342205009 ]
    mass: 15.999400
  - symbol: O  # 10
    coordinates: [  0.479695780420403,  0.750000000000000,  0.911982672794989 ]
    mass: 15.999400
  - symbol: O  # 11
    coordinates: [  0.020304219579589,  0.750000000000000,  0.411982672794989 ]
    mass: 15.999400
  - symbol: O  # 12
    coordinates: [  0.979695780420421,  0.250000000000000,  0.588017327205011 ]
    mass: 15.999400
  - symbol: O  # 13
    coordinates: [  0.039080507774478,  0.250000000000000,  0.224735169017796 ]
    mass: 15.999400
  - symbol: O  # 14
    coordinates: [  0.960919481225514,  0.750000000000000,  0.775264830982204 ]
    mass: 15.999400
  - symbol: O  # 15
    coordinates: [  0.539080518774486,  0.750000000000000,  0.275264830982204 ]
    mass: 15.999400
  - symbol: O  # 16
    coordinates: [  0.460919481225517,  0.250000000000000,  0.724735169017796 ]
    mass: 15.999400
  reciprocal_lattice: # without 2pi
  - [     0.255458563546454,     0.000000000000000,     0.000000000000000 ] # a*
  - [     0.000000000000000,     0.271282941000099,     0.000000000000000 ] # b*
  - [     0.000000000000000,     0.000000000000000,     0.071955598129511 ] # c*

unit_cell:
  lattice:
  - [     3.914529174975785,     0.000000000000000,     0.000000000000000 ] # a
  - [    -0.000000000000000,     3.686188288557501,     0.000000000000000 ] # b
  - [     0.000000000000000,     0.000000000000000,    13.897459349863569 ] # c
  points:
  - symbol: Mo # 1
    coordinates: [  0.078604301539825,  0.250000000000000,  0.104922304938614 ]
    mass: 95.960000
    reduced_to: 1
  - symbol: Mo # 2
    coordinates: [  0.921395720460185,  0.750000000000000,  0.895077687061389 ]
    mass: 95.960000
    reduced_to: 2
  - symbol: Mo # 3
    coordinates: [  0.578604279539815,  0.750000000000000,  0.395077687061392 ]
    mass: 95.960000
    reduced_to: 3
  - symbol: Mo # 4
    coordinates: [  0.421395690460173,  0.250000000000000,  0.604922312938611 ]
    mass: 95.960000
    reduced_to: 4
  - symbol: O  # 5
    coordinates: [  0.499788526869523,  0.250000000000000,  0.432875235021382 ]
    mass: 15.999400
    reduced_to: 5
  - symbol: O  # 6
    coordinates: [  0.500211443130480,  0.750000000000000,  0.567124764978620 ]
    mass: 15.999400
    reduced_to: 6
  - symbol: O  # 7
    coordinates: [  0.999788556869527,  0.750000000000000,  0.067124764978619 ]
    mass: 15.999400
    reduced_to: 7
  - symbol: O  # 8
    coordinates: [  0.000211473130478,  0.250000000000000,  0.932875235021380 ]
    mass: 15.999400
    reduced_to: 8
  - symbol: O  # 9
    coordinates: [  0.520304219579579,  0.250000000000000,  0.088017342205009 ]
    mass: 15.999400
    reduced_to: 9
  - symbol: O  # 10
    coordinates: [  0.479695780420403,  0.750000000000000,  0.911982672794989 ]
    mass: 15.999400
    reduced_to: 10
  - symbol: O  # 11
    coordinates: [  0.020304219579589,  0.750000000000000,  0.411982672794989 ]
    mass: 15.999400
    reduced_to: 11
  - symbol: O  # 12
    coordinates: [  0.979695780420421,  0.250000000000000,  0.588017327205011 ]
    mass: 15.999400
    reduced_to: 12
  - symbol: O  # 13
    coordinates: [  0.039080507774478,  0.250000000000000,  0.224735169017796 ]
    mass: 15.999400
    reduced_to: 13
  - symbol: O  # 14
    coordinates: [  0.960919481225514,  0.750000000000000,  0.775264830982204 ]
    mass: 15.999400
    reduced_to: 14
  - symbol: O  # 15
    coordinates: [  0.539080518774486,  0.750000000000000,  0.275264830982204 ]
    mass: 15.999400
    reduced_to: 15
  - symbol: O  # 16
    coordinates: [  0.460919481225517,  0.250000000000000,  0.724735169017796 ]
    mass: 15.999400
    reduced_to: 16

supercell:
  lattice:
  - [    15.658116699903141,     0.000000000000000,     0.000000000000000 ] # a
  - [    -0.000000000000001,    14.744753154230002,     0.000000000000000 ] # b
  - [     0.000000000000000,     0.000000000000000,    13.897459349863569 ] # c
  points:
  - symbol: Mo # 1
    coordinates: [  0.019651075384956,  0.062500000000000,  0.104922304938614 ]
    mass: 95.960000
    reduced_to: 1
  - symbol: Mo # 2
    coordinates: [  0.269651075384956,  0.062500000000000,  0.104922304938614 ]
    mass: 95.960000
    reduced_to: 1
  - symbol: Mo # 3
    coordinates: [  0.519651075384956,  0.062500000000000,  0.104922304938614 ]
    mass: 95.960000
    reduced_to: 1
  - symbol: Mo # 4
    coordinates: [  0.769651075384956,  0.062500000000000,  0.104922304938614 ]
    mass: 95.960000
    reduced_to: 1
  - symbol: Mo # 5
    coordinates: [  0.019651075384956,  0.312500000000000,  0.104922304938614 ]
    mass: 95.960000
    reduced_to: 1
  - symbol: Mo # 6
    coordinates: [  0.269651075384956,  0.312500000000000,  0.104922304938614 ]
    mass: 95.960000
    reduced_to: 1
  - symbol: Mo # 7
    coordinates: [  0.519651075384956,  0.312500000000000,  0.104922304938614 ]
    mass: 95.960000
    reduced_to: 1
  - symbol: Mo # 8
    coordinates: [  0.769651075384956,  0.312500000000000,  0.104922304938614 ]
    mass: 95.960000
    reduced_to: 1
  - symbol: Mo # 9
    coordinates: [  0.019651075384956,  0.562500000000000,  0.104922304938614 ]
    mass: 95.960000
    reduced_to: 1
  - symbol: Mo # 10
    coordinates: [  0.269651075384956,  0.562500000000000,  0.104922304938614 ]
    mass: 95.960000
    reduced_to: 1
  - symbol: Mo # 11
    coordinates: [  0.519651075384956,  0.562500000000000,  0.104922304938614 ]
    mass: 95.960000
    reduced_to: 1
  - symbol: Mo # 12
    coordinates: [  0.769651075384956,  0.562500000000000,  0.104922304938614 ]
    mass: 95.960000
    reduced_to: 1
  - symbol: Mo # 13
    coordinates: [  0.019651075384956,  0.812500000000000,  0.104922304938614 ]
    mass: 95.960000
    reduced_to: 1
  - symbol: Mo # 14
    coordinates: [  0.269651075384956,  0.812500000000000,  0.104922304938614 ]
    mass: 95.960000
    reduced_to: 1
  - symbol: Mo # 15
    coordinates: [  0.519651075384956,  0.812500000000000,  0.104922304938614 ]
    mass: 95.960000
    reduced_to: 1
  - symbol: Mo # 16
    coordinates: [  0.769651075384956,  0.812500000000000,  0.104922304938614 ]
    mass: 95.960000
    reduced_to: 1
  - symbol: Mo # 17
    coordinates: [  0.230348930115046,  0.187500000000000,  0.895077687061389 ]
    mass: 95.960000
    reduced_to: 17
  - symbol: Mo # 18
    coordinates: [  0.480348930115046,  0.187500000000000,  0.895077687061389 ]
    mass: 95.960000
    reduced_to: 17
  - symbol: Mo # 19
    coordinates: [  0.730348930115046,  0.187500000000000,  0.895077687061389 ]
    mass: 95.960000
    reduced_to: 17
  - symbol: Mo # 20
    coordinates: [  0.980348930115046,  0.187500000000000,  0.895077687061389 ]
    mass: 95.960000
    reduced_to: 17
  - symbol: Mo # 21
    coordinates: [  0.230348930115046,  0.437500000000000,  0.895077687061389 ]
    mass: 95.960000
    reduced_to: 17
  - symbol: Mo # 22
    coordinates: [  0.480348930115046,  0.437500000000000,  0.895077687061389 ]
    mass: 95.960000
    reduced_to: 17
  - symbol: Mo # 23
    coordinates: [  0.730348930115046,  0.437500000000000,  0.895077687061389 ]
    mass: 95.960000
    reduced_to: 17
  - symbol: Mo # 24
    coordinates: [  0.980348930115046,  0.437500000000000,  0.895077687061389 ]
    mass: 95.960000
    reduced_to: 17
  - symbol: Mo # 25
    coordinates: [  0.230348930115046,  0.687500000000000,  0.895077687061389 ]
    mass: 95.960000
    reduced_to: 17
  - symbol: Mo # 26
    coordinates: [  0.480348930115046,  0.687500000000000,  0.895077687061389 ]
    mass: 95.960000
    reduced_to: 17
  - symbol: Mo # 27
    coordinates: [  0.730348930115046,  0.687500000000000,  0.895077687061389 ]
    mass: 95.960000
    reduced_to: 17
  - symbol: Mo # 28
    coordinates: [  0.980348930115046,  0.687500000000000,  0.895077687061389 ]
    mass: 95.960000
    reduced_to: 17
  - symbol: Mo # 29
    coordinates: [  0.230348930115046,  0.937500000000000,  0.895077687061389 ]
    mass: 95.960000
    reduced_to: 17
  - symbol: Mo # 30
    coordinates: [  0.480348930115046,  0.937500000000000,  0.895077687061389 ]
    mass: 95.960000
    reduced_to: 17
  - symbol: Mo # 31
    coordinates: [  0.730348930115046,  0.937500000000000,  0.895077687061389 ]
    mass: 95.960000
    reduced_to: 17
  - symbol: Mo # 32
    coordinates: [  0.980348930115046,  0.937500000000000,  0.895077687061389 ]
    mass: 95.960000
    reduced_to: 17
  - symbol: Mo # 33
    coordinates: [  0.144651069884954,  0.187500000000000,  0.395077687061392 ]
    mass: 95.960000
    reduced_to: 33
  - symbol: Mo # 34
    coordinates: [  0.394651069884954,  0.187500000000000,  0.395077687061392 ]
    mass: 95.960000
    reduced_to: 33
  - symbol: Mo # 35
    coordinates: [  0.644651069884954,  0.187500000000000,  0.395077687061392 ]
    mass: 95.960000
    reduced_to: 33
  - symbol: Mo # 36
    coordinates: [  0.894651069884954,  0.187500000000000,  0.395077687061392 ]
    mass: 95.960000
    reduced_to: 33
  - symbol: Mo # 37
    coordinates: [  0.144651069884954,  0.437500000000000,  0.395077687061392 ]
    mass: 95.960000
    reduced_to: 33
  - symbol: Mo # 38
    coordinates: [  0.394651069884954,  0.437500000000000,  0.395077687061392 ]
    mass: 95.960000
    reduced_to: 33
  - symbol: Mo # 39
    coordinates: [  0.644651069884954,  0.437500000000000,  0.395077687061392 ]
    mass: 95.960000
    reduced_to: 33
  - symbol: Mo # 40
    coordinates: [  0.894651069884954,  0.437500000000000,  0.395077687061392 ]
    mass: 95.960000
    reduced_to: 33
  - symbol: Mo # 41
    coordinates: [  0.144651069884954,  0.687500000000000,  0.395077687061392 ]
    mass: 95.960000
    reduced_to: 33
  - symbol: Mo # 42
    coordinates: [  0.394651069884954,  0.687500000000000,  0.395077687061392 ]
    mass: 95.960000
    reduced_to: 33
  - symbol: Mo # 43
    coordinates: [  0.644651069884954,  0.687500000000000,  0.395077687061392 ]
    mass: 95.960000
    reduced_to: 33
  - symbol: Mo # 44
    coordinates: [  0.894651069884954,  0.687500000000000,  0.395077687061392 ]
    mass: 95.960000
    reduced_to: 33
  - symbol: Mo # 45
    coordinates: [  0.144651069884954,  0.937500000000000,  0.395077687061392 ]
    mass: 95.960000
    reduced_to: 33
  - symbol: Mo # 46
    coordinates: [  0.394651069884954,  0.937500000000000,  0.395077687061392 ]
    mass: 95.960000
    reduced_to: 33
  - symbol: Mo # 47
    coordinates: [  0.644651069884954,  0.937500000000000,  0.395077687061392 ]
    mass: 95.960000
    reduced_to: 33
  - symbol: Mo # 48
    coordinates: [  0.894651069884954,  0.937500000000000,  0.395077687061392 ]
    mass: 95.960000
    reduced_to: 33
  - symbol: Mo # 49
    coordinates: [  0.105348922615043,  0.062500000000000,  0.604922312938611 ]
    mass: 95.960000
    reduced_to: 49
  - symbol: Mo # 50
    coordinates: [  0.355348922615043,  0.062500000000000,  0.604922312938611 ]
    mass: 95.960000
    reduced_to: 49
  - symbol: Mo # 51
    coordinates: [  0.605348922615043,  0.062500000000000,  0.604922312938611 ]
    mass: 95.960000
    reduced_to: 49
  - symbol: Mo # 52
    coordinates: [  0.855348922615043,  0.062500000000000,  0.604922312938611 ]
    mass: 95.960000
    reduced_to: 49
  - symbol: Mo # 53
    coordinates: [  0.105348922615043,  0.312500000000000,  0.604922312938611 ]
    mass: 95.960000
    reduced_to: 49
  - symbol: Mo # 54
    coordinates: [  0.355348922615043,  0.312500000000000,  0.604922312938611 ]
    mass: 95.960000
    reduced_to: 49
  - symbol: Mo # 55
    coordinates: [  0.605348922615043,  0.312500000000000,  0.604922312938611 ]
    mass: 95.960000
    reduced_to: 49
  - symbol: Mo # 56
    coordinates: [  0.855348922615043,  0.312500000000000,  0.604922312938611 ]
    mass: 95.960000
    reduced_to: 49
  - symbol: Mo # 57
    coordinates: [  0.105348922615043,  0.562500000000000,  0.604922312938611 ]
    mass: 95.960000
    reduced_to: 49
  - symbol: Mo # 58
    coordinates: [  0.355348922615043,  0.562500000000000,  0.604922312938611 ]
    mass: 95.960000
    reduced_to: 49
  - symbol: Mo # 59
    coordinates: [  0.605348922615043,  0.562500000000000,  0.604922312938611 ]
    mass: 95.960000
    reduced_to: 49
  - symbol: Mo # 60
    coordinates: [  0.855348922615043,  0.562500000000000,  0.604922312938611 ]
    mass: 95.960000
    reduced_to: 49
  - symbol: Mo # 61
    coordinates: [  0.105348922615043,  0.812500000000000,  0.604922312938611 ]
    mass: 95.960000
    reduced_to: 49
  - symbol: Mo # 62
    coordinates: [  0.355348922615043,  0.812500000000000,  0.604922312938611 ]
    mass: 95.960000
    reduced_to: 49
  - symbol: Mo # 63
    coordinates: [  0.605348922615043,  0.812500000000000,  0.604922312938611 ]
    mass: 95.960000
    reduced_to: 49
  - symbol: Mo # 64
    coordinates: [  0.855348922615043,  0.812500000000000,  0.604922312938611 ]
    mass: 95.960000
    reduced_to: 49
  - symbol: O  # 65
    coordinates: [  0.124947131717381,  0.062500000000000,  0.432875235021382 ]
    mass: 15.999400
    reduced_to: 65
  - symbol: O  # 66
    coordinates: [  0.374947131717381,  0.062500000000000,  0.432875235021382 ]
    mass: 15.999400
    reduced_to: 65
  - symbol: O  # 67
    coordinates: [  0.624947131717381,  0.062500000000000,  0.432875235021382 ]
    mass: 15.999400
    reduced_to: 65
  - symbol: O  # 68
    coordinates: [  0.874947131717381,  0.062500000000000,  0.432875235021382 ]
    mass: 15.999400
    reduced_to: 65
  - symbol: O  # 69
    coordinates: [  0.124947131717381,  0.312500000000000,  0.432875235021382 ]
    mass: 15.999400
    reduced_to: 65
  - symbol: O  # 70
    coordinates: [  0.374947131717381,  0.312500000000000,  0.432875235021382 ]
    mass: 15.999400
    reduced_to: 65
  - symbol: O  # 71
    coordinates: [  0.624947131717381,  0.312500000000000,  0.432875235021382 ]
    mass: 15.999400
    reduced_to: 65
  - symbol: O  # 72
    coordinates: [  0.874947131717381,  0.312500000000000,  0.432875235021382 ]
    mass: 15.999400
    reduced_to: 65
  - symbol: O  # 73
    coordinates: [  0.124947131717381,  0.562500000000000,  0.432875235021382 ]
    mass: 15.999400
    reduced_to: 65
  - symbol: O  # 74
    coordinates: [  0.374947131717381,  0.562500000000000,  0.432875235021382 ]
    mass: 15.999400
    reduced_to: 65
  - symbol: O  # 75
    coordinates: [  0.624947131717381,  0.562500000000000,  0.432875235021382 ]
    mass: 15.999400
    reduced_to: 65
  - symbol: O  # 76
    coordinates: [  0.874947131717381,  0.562500000000000,  0.432875235021382 ]
    mass: 15.999400
    reduced_to: 65
  - symbol: O  # 77
    coordinates: [  0.124947131717381,  0.812500000000000,  0.432875235021382 ]
    mass: 15.999400
    reduced_to: 65
  - symbol: O  # 78
    coordinates: [  0.374947131717381,  0.812500000000000,  0.432875235021382 ]
    mass: 15.999400
    reduced_to: 65
  - symbol: O  # 79
    coordinates: [  0.624947131717381,  0.812500000000000,  0.432875235021382 ]
    mass: 15.999400
    reduced_to: 65
  - symbol: O  # 80
    coordinates: [  0.874947131717381,  0.812500000000000,  0.432875235021382 ]
    mass: 15.999400
    reduced_to: 65
  - symbol: O  # 81
    coordinates: [  0.125052860782620,  0.187500000000000,  0.567124764978620 ]
    mass: 15.999400
    reduced_to: 81
  - symbol: O  # 82
    coordinates: [  0.375052860782620,  0.187500000000000,  0.567124764978620 ]
    mass: 15.999400
    reduced_to: 81
  - symbol: O  # 83
    coordinates: [  0.625052860782620,  0.187500000000000,  0.567124764978620 ]
    mass: 15.999400
    reduced_to: 81
  - symbol: O  # 84
    coordinates: [  0.875052860782620,  0.187500000000000,  0.567124764978620 ]
    mass: 15.999400
    reduced_to: 81
  - symbol: O  # 85
    coordinates: [  0.125052860782620,  0.437500000000000,  0.567124764978620 ]
    mass: 15.999400
    reduced_to: 81
  - symbol: O  # 86
    coordinates: [  0.375052860782620,  0.437500000000000,  0.567124764978620 ]
    mass: 15.999400
    reduced_to: 81
  - symbol: O  # 87
    coordinates: [  0.625052860782620,  0.437500000000000,  0.567124764978620 ]
    mass: 15.999400
    reduced_to: 81
  - symbol: O  # 88
    coordinates: [  0.875052860782620,  0.437500000000000,  0.567124764978620 ]
    mass: 15.999400
    reduced_to: 81
  - symbol: O  # 89
    coordinates: [  0.125052860782620,  0.687500000000000,  0.567124764978620 ]
    mass: 15.999400
    reduced_to: 81
  - symbol: O  # 90
    coordinates: [  0.375052860782620,  0.687500000000000,  0.567124764978620 ]
    mass: 15.999400
    reduced_to: 81
  - symbol: O  # 91
    coordinates: [  0.625052860782620,  0.687500000000000,  0.567124764978620 ]
    mass: 15.999400
    reduced_to: 81
  - symbol: O  # 92
    coordinates: [  0.875052860782620,  0.687500000000000,  0.567124764978620 ]
    mass: 15.999400
    reduced_to: 81
  - symbol: O  # 93
    coordinates: [  0.125052860782620,  0.937500000000000,  0.567124764978620 ]
    mass: 15.999400
    reduced_to: 81
  - symbol: O  # 94
    coordinates: [  0.375052860782620,  0.937500000000000,  0.567124764978620 ]
    mass: 15.999400
    reduced_to: 81
  - symbol: O  # 95
    coordinates: [  0.625052860782620,  0.937500000000000,  0.567124764978620 ]
    mass: 15.999400
    reduced_to: 81
  - symbol: O  # 96
    coordinates: [  0.875052860782620,  0.937500000000000,  0.567124764978620 ]
    mass: 15.999400
    reduced_to: 81
  - symbol: O  # 97
    coordinates: [  0.249947139217382,  0.187500000000000,  0.067124764978619 ]
    mass: 15.999400
    reduced_to: 97
  - symbol: O  # 98
    coordinates: [  0.499947139217382,  0.187500000000000,  0.067124764978619 ]
    mass: 15.999400
    reduced_to: 97
  - symbol: O  # 99
    coordinates: [  0.749947139217382,  0.187500000000000,  0.067124764978619 ]
    mass: 15.999400
    reduced_to: 97
  - symbol: O  # 100
    coordinates: [  0.999947139217382,  0.187500000000000,  0.067124764978619 ]
    mass: 15.999400
    reduced_to: 97
  - symbol: O  # 101
    coordinates: [  0.249947139217382,  0.437500000000000,  0.067124764978619 ]
    mass: 15.999400
    reduced_to: 97
  - symbol: O  # 102
    coordinates: [  0.499947139217382,  0.437500000000000,  0.067124764978619 ]
    mass: 15.999400
    reduced_to: 97
  - symbol: O  # 103
    coordinates: [  0.749947139217382,  0.437500000000000,  0.067124764978619 ]
    mass: 15.999400
    reduced_to: 97
  - symbol: O  # 104
    coordinates: [  0.999947139217382,  0.437500000000000,  0.067124764978619 ]
    mass: 15.999400
    reduced_to: 97
  - symbol: O  # 105
    coordinates: [  0.249947139217382,  0.687500000000000,  0.067124764978619 ]
    mass: 15.999400
    reduced_to: 97
  - symbol: O  # 106
    coordinates: [  0.499947139217382,  0.687500000000000,  0.067124764978619 ]
    mass: 15.999400
    reduced_to: 97
  - symbol: O  # 107
    coordinates: [  0.749947139217382,  0.687500000000000,  0.067124764978619 ]
    mass: 15.999400
    reduced_to: 97
  - symbol: O  # 108
    coordinates: [  0.999947139217382,  0.687500000000000,  0.067124764978619 ]
    mass: 15.999400
    reduced_to: 97
  - symbol: O  # 109
    coordinates: [  0.249947139217382,  0.937500000000000,  0.067124764978619 ]
    mass: 15.999400
    reduced_to: 97
  - symbol: O  # 110
    coordinates: [  0.499947139217382,  0.937500000000000,  0.067124764978619 ]
    mass: 15.999400
    reduced_to: 97
  - symbol: O  # 111
    coordinates: [  0.749947139217382,  0.937500000000000,  0.067124764978619 ]
    mass: 15.999400
    reduced_to: 97
  - symbol: O  # 112
    coordinates: [  0.999947139217382,  0.937500000000000,  0.067124764978619 ]
    mass: 15.999400
    reduced_to: 97
  - symbol: O  # 113
    coordinates: [  0.000052868282619,  0.062500000000000,  0.932875235021380 ]
    mass: 15.999400
    reduced_to: 113
  - symbol: O  # 114
    coordinates: [  0.250052868282619,  0.062500000000000,  0.932875235021380 ]
    mass: 15.999400
    reduced_to: 113
  - symbol: O  # 115
    coordinates: [  0.500052868282619,  0.062500000000000,  0.932875235021380 ]
    mass: 15.999400
    reduced_to: 113
  - symbol: O  # 116
    coordinates: [  0.750052868282619,  0.062500000000000,  0.932875235021380 ]
    mass: 15.999400
    reduced_to: 113
  - symbol: O  # 117
    coordinates: [  0.000052868282619,  0.312500000000000,  0.932875235021380 ]
    mass: 15.999400
    reduced_to: 113
  - symbol: O  # 118
    coordinates: [  0.250052868282619,  0.312500000000000,  0.932875235021380 ]
    mass: 15.999400
    reduced_to: 113
  - symbol: O  # 119
    coordinates: [  0.500052868282619,  0.312500000000000,  0.932875235021380 ]
    mass: 15.999400
    reduced_to: 113
  - symbol: O  # 120
    coordinates: [  0.750052868282619,  0.312500000000000,  0.932875235021380 ]
    mass: 15.999400
    reduced_to: 113
  - symbol: O  # 121
    coordinates: [  0.000052868282619,  0.562500000000000,  0.932875235021380 ]
    mass: 15.999400
    reduced_to: 113
  - symbol: O  # 122
    coordinates: [  0.250052868282619,  0.562500000000000,  0.932875235021380 ]
    mass: 15.999400
    reduced_to: 113
  - symbol: O  # 123
    coordinates: [  0.500052868282619,  0.562500000000000,  0.932875235021380 ]
    mass: 15.999400
    reduced_to: 113
  - symbol: O  # 124
    coordinates: [  0.750052868282619,  0.562500000000000,  0.932875235021380 ]
    mass: 15.999400
    reduced_to: 113
  - symbol: O  # 125
    coordinates: [  0.000052868282619,  0.812500000000000,  0.932875235021380 ]
    mass: 15.999400
    reduced_to: 113
  - symbol: O  # 126
    coordinates: [  0.250052868282619,  0.812500000000000,  0.932875235021380 ]
    mass: 15.999400
    reduced_to: 113
  - symbol: O  # 127
    coordinates: [  0.500052868282619,  0.812500000000000,  0.932875235021380 ]
    mass: 15.999400
    reduced_to: 113
  - symbol: O  # 128
    coordinates: [  0.750052868282619,  0.812500000000000,  0.932875235021380 ]
    mass: 15.999400
    reduced_to: 113
  - symbol: O  # 129
    coordinates: [  0.130076054894895,  0.062500000000000,  0.088017342205009 ]
    mass: 15.999400
    reduced_to: 129
  - symbol: O  # 130
    coordinates: [  0.380076054894895,  0.062500000000000,  0.088017342205009 ]
    mass: 15.999400
    reduced_to: 129
  - symbol: O  # 131
    coordinates: [  0.630076054894895,  0.062500000000000,  0.088017342205009 ]
    mass: 15.999400
    reduced_to: 129
  - symbol: O  # 132
    coordinates: [  0.880076054894895,  0.062500000000000,  0.088017342205009 ]
    mass: 15.999400
    reduced_to: 129
  - symbol: O  # 133
    coordinates: [  0.130076054894895,  0.312500000000000,  0.088017342205009 ]
    mass: 15.999400
    reduced_to: 129
  - symbol: O  # 134
    coordinates: [  0.380076054894895,  0.312500000000000,  0.088017342205009 ]
    mass: 15.999400
    reduced_to: 129
  - symbol: O  # 135
    coordinates: [  0.630076054894895,  0.312500000000000,  0.088017342205009 ]
    mass: 15.999400
    reduced_to: 129
  - symbol: O  # 136
    coordinates: [  0.880076054894895,  0.312500000000000,  0.088017342205009 ]
    mass: 15.999400
    reduced_to: 129
  - symbol: O  # 137
    coordinates: [  0.130076054894895,  0.562500000000000,  0.088017342205009 ]
    mass: 15.999400
    reduced_to: 129
  - symbol: O  # 138
    coordinates: [  0.380076054894895,  0.562500000000000,  0.088017342205009 ]
    mass: 15.999400
    reduced_to: 129
  - symbol: O  # 139
    coordinates: [  0.630076054894895,  0.562500000000000,  0.088017342205009 ]
    mass: 15.999400
    reduced_to: 129
  - symbol: O  # 140
    coordinates: [  0.880076054894895,  0.562500000000000,  0.088017342205009 ]
    mass: 15.999400
    reduced_to: 129
  - symbol: O  # 141
    coordinates: [  0.130076054894895,  0.812500000000000,  0.088017342205009 ]
    mass: 15.999400
    reduced_to: 129
  - symbol: O  # 142
    coordinates: [  0.380076054894895,  0.812500000000000,  0.088017342205009 ]
    mass: 15.999400
    reduced_to: 129
  - symbol: O  # 143
    coordinates: [  0.630076054894895,  0.812500000000000,  0.088017342205009 ]
    mass: 15.999400
    reduced_to: 129
  - symbol: O  # 144
    coordinates: [  0.880076054894895,  0.812500000000000,  0.088017342205009 ]
    mass: 15.999400
    reduced_to: 129
  - symbol: O  # 145
    coordinates: [  0.119923945105101,  0.187500000000000,  0.911982672794989 ]
    mass: 15.999400
    reduced_to: 145
  - symbol: O  # 146
    coordinates: [  0.369923945105101,  0.187500000000000,  0.911982672794989 ]
    mass: 15.999400
    reduced_to: 145
  - symbol: O  # 147
    coordinates: [  0.619923945105101,  0.187500000000000,  0.911982672794989 ]
    mass: 15.999400
    reduced_to: 145
  - symbol: O  # 148
    coordinates: [  0.869923945105101,  0.187500000000000,  0.911982672794989 ]
    mass: 15.999400
    reduced_to: 145
  - symbol: O  # 149
    coordinates: [  0.119923945105101,  0.437500000000000,  0.911982672794989 ]
    mass: 15.999400
    reduced_to: 145
  - symbol: O  # 150
    coordinates: [  0.369923945105101,  0.437500000000000,  0.911982672794989 ]
    mass: 15.999400
    reduced_to: 145
  - symbol: O  # 151
    coordinates: [  0.619923945105101,  0.437500000000000,  0.911982672794989 ]
    mass: 15.999400
    reduced_to: 145
  - symbol: O  # 152
    coordinates: [  0.869923945105101,  0.437500000000000,  0.911982672794989 ]
    mass: 15.999400
    reduced_to: 145
  - symbol: O  # 153
    coordinates: [  0.119923945105101,  0.687500000000000,  0.911982672794989 ]
    mass: 15.999400
    reduced_to: 145
  - symbol: O  # 154
    coordinates: [  0.369923945105101,  0.687500000000000,  0.911982672794989 ]
    mass: 15.999400
    reduced_to: 145
  - symbol: O  # 155
    coordinates: [  0.619923945105101,  0.687500000000000,  0.911982672794989 ]
    mass: 15.999400
    reduced_to: 145
  - symbol: O  # 156
    coordinates: [  0.869923945105101,  0.687500000000000,  0.911982672794989 ]
    mass: 15.999400
    reduced_to: 145
  - symbol: O  # 157
    coordinates: [  0.119923945105101,  0.937500000000000,  0.911982672794989 ]
    mass: 15.999400
    reduced_to: 145
  - symbol: O  # 158
    coordinates: [  0.369923945105101,  0.937500000000000,  0.911982672794989 ]
    mass: 15.999400
    reduced_to: 145
  - symbol: O  # 159
    coordinates: [  0.619923945105101,  0.937500000000000,  0.911982672794989 ]
    mass: 15.999400
    reduced_to: 145
  - symbol: O  # 160
    coordinates: [  0.869923945105101,  0.937500000000000,  0.911982672794989 ]
    mass: 15.999400
    reduced_to: 145
  - symbol: O  # 161
    coordinates: [  0.005076054894897,  0.187500000000000,  0.411982672794989 ]
    mass: 15.999400
    reduced_to: 161
  - symbol: O  # 162
    coordinates: [  0.255076054894897,  0.187500000000000,  0.411982672794989 ]
    mass: 15.999400
    reduced_to: 161
  - symbol: O  # 163
    coordinates: [  0.505076054894897,  0.187500000000000,  0.411982672794989 ]
    mass: 15.999400
    reduced_to: 161
  - symbol: O  # 164
    coordinates: [  0.755076054894897,  0.187500000000000,  0.411982672794989 ]
    mass: 15.999400
    reduced_to: 161
  - symbol: O  # 165
    coordinates: [  0.005076054894897,  0.437500000000000,  0.411982672794989 ]
    mass: 15.999400
    reduced_to: 161
  - symbol: O  # 166
    coordinates: [  0.255076054894897,  0.437500000000000,  0.411982672794989 ]
    mass: 15.999400
    reduced_to: 161
  - symbol: O  # 167
    coordinates: [  0.505076054894897,  0.437500000000000,  0.411982672794989 ]
    mass: 15.999400
    reduced_to: 161
  - symbol: O  # 168
    coordinates: [  0.755076054894897,  0.437500000000000,  0.411982672794989 ]
    mass: 15.999400
    reduced_to: 161
  - symbol: O  # 169
    coordinates: [  0.005076054894897,  0.687500000000000,  0.411982672794989 ]
    mass: 15.999400
    reduced_to: 161
  - symbol: O  # 170
    coordinates: [  0.255076054894897,  0.687500000000000,  0.411982672794989 ]
    mass: 15.999400
    reduced_to: 161
  - symbol: O  # 171
    coordinates: [  0.505076054894897,  0.687500000000000,  0.411982672794989 ]
    mass: 15.999400
    reduced_to: 161
  - symbol: O  # 172
    coordinates: [  0.755076054894897,  0.687500000000000,  0.411982672794989 ]
    mass: 15.999400
    reduced_to: 161
  - symbol: O  # 173
    coordinates: [  0.005076054894897,  0.937500000000000,  0.411982672794989 ]
    mass: 15.999400
    reduced_to: 161
  - symbol: O  # 174