nqpoint: 2      
natom:   16     
reciprocal_lattice:
- [   0.25545856,   0.00000000,   0.00000000 ] # a*
- [   0.00000000,   0.27128294,   0.00000000 ] # b*
- [   0.00000000,   0.00000000,   0.07195560 ] # c*
phonon:
- q-position: [    0.0000000,    0.0000000,    0.0000000 ]
  dynamical_matrix:
  - [    0.2883273435,   -0.0000000000,    0.0000000000,    0.0000000000,   -0.0146048067,    0.0000000000,   -0.0012609482,    0.0000000000,   -0.0000000000,    0.0000000000,   -0.0102590197,    0.0000000000,   -0.0003161567,    0.0000000000,   -0.0000000000,    0.0000000000,    0.0048797212,    0.0000000000,    0.0006765227,    0.0000000000,    0.0000000000,    0.0000000000,    0.0055889486,    0.0000000000,    0.0004889398,    0.0000000000,    0.0000000000,    0.0000000000,   -0.0050247146,    0.0000000000,    0.0003369995,    0.0000000000,   -0.0000000000,    0.0000000000,   -0.0042247884,    0.0000000000,   -0.0418326128,    0.0000000000,   -0.0000000000,    0.0000000000,   -0.0003988338,    0.0000000000,   -0.0092317417,    0.0000000000,   -0.0000000000,    0.0000000000,   -0.0152828131,    0.0000000000,   -0.5803449705,    0.0000000000,   -0.0000000000,    0.0000000000,    0.0306962538,    0.0000000000,    0.0048638156,    0.0000000000,   -0.0000000000,    0.0000000000,    0.0003435435,    0.0000000000,    0.0001087954,    0.0000000000,   -0.0000000000,    0.0000000000,   -0.0024878062,    0.0000000000,   -0.0015413828,    0.0000000000,    0.0000000000,    0.0000000000,   -0.0020698572,    0.0000000000,   -0.0730496941,    0.0000000000,   -0.0000000000,    0.0000000000,    0.0451969287,    0.0000000000,   -0.0007625497,    0.0000000000,    0.0000000000,    0.0000000000,   -0.0034565778,    0.0000000000,   -0.0019431214,    0.0000000000,   -0.0000000000,    0.0000000000,   -0.0013889302,    0.0000000000,   -0.0009218342,    0.0000000000,    0.0000000000,    0.0000000000,   -0.0066805513,    0.0000000000 ]
  - [    0.0000000000,   -0.0000000000,    0.1014950080,   -0.0000000000,    0.0000000000,    0.0000000000,    0.0000000000,    0.0000000000,   -0.0044996933,    0.0000000000,    0.0000000000,    0.0000000000,   -0.0000000000,    0.0000000000,   -0.0003833501,    0.0000000000,   -0.0000000000,    0.0000000000,    0.0000000000,    0.0000000000,    0.0000272855,    0.0000000000,    0.0000000000,    0.0000000000,   -0.0000000000,    0.0000000000,   -0.0002063321,    0.0000000000,   -0.0000000000,    0.0000000000,    0.0000000000,    0.0000000000,   -0.0000765392,    0.0000000000,   -0.0000000000,    0.0000000000,   -0.0000000000,    0.0000000000,   -0.1789089608,    0.0000000000,    0.0000000000,    0.0000000000,   -0.0000000000,    0.0000000000,    0.0003492196,    0.0000000000,   -0.0000000000,    0.0000000000,   -0.0000000000,    0.0000000000,   -0.0036863171,    0.0000000000,    0.0000000000,    0.0000000000,   -0.0000000000,    0.0000000000,    0.0005158115,    0.0000000000,   -0.0000000000,    0.0000000000,    0.0000000000,    0.0000000000,    0.0002783109,    0.0000000000,   -0.0000000000,    0.0000000000,   -0.0000000000,    0.0000000000,   -0.0000113822,    0.0000000000,   -0.0000000000,    0.0000000000,   -0.0000000000,    0.0000000000,   -0.0517764557,    0.0000000000,    0.0000000000,    0.0000000000,   -0.0000000000,    0.0000000000,   -0.0012188110,    0.0000000000,    0.0000000000,    0.0000000000,    0.0000000000,    0.0000000000,   -0.0017424030,    0.0000000000,    0.0000000000,    0.0000000000,   -0.0000000000,    0.0000000000,   -0.0000650546,    0.0000000000,   -0.0000000000,    0.0000000000 ]
  - [   -0.0146048067,   -0.0000000000,    0.0000000000,   -0.0000000000,    0.6514286265,   -0.0000000000,   -0.0102590197,    0.0000000000,   -0.0000000000,    0.0000000000,   -0.0402768028,    0.0000000000,   -0.0048797212,    0.0000000000,    0.0000000000,    0.0000000000,   -0.0431938620,    0.0000000000,   -0.0055889486,    0.0000000000,    0.0000000000,    0.0000000000,   -0.0443601084,    0.0000000000,   -0.0047401863,    0.0000000000,   -0.0000000000,    0.0000000000,    0.0393964040,    0.0000000000,   -0.0046011436,    0.0000000000,    0.0000000000,    0.0000000000,    0.0381838034,    0.0000000000,   -0.0289045210,    0.0000000000,   -0.0000000000,    0.0000000000,   -0.1895380586,    0.0000000000,    0.0086470255,    0.0000000000,    0.0000000000,    0.0000000000,    0.0084734400,    0.0000000000,    0.0201150428,    0.0000000000,    0.0000000000,    0.0000000000,   -0.1474285156,    0.0000000000,    0.0016332827,    0.0000000000,   -0.0000000000,    0.0000000000,    0.0020713992,    0.0000000000,    0.0100846729,    0.0000000000,    0.0000000000,    0.0000000000,    0.0167178644,    0.0000000000,    0.0118413155,    0.0000000000,    0.0000000000,    0.0000000000,    0.0161838819,    0.0000000000,    0.0582783545,    0.0000000000,    0.0000000000,    0.0000000000,   -1.2059092768,    0.0000000000,   -0.0003906411,    0.0000000000,    0.0000000000,    0.0000000000,    0.0436580487,    0.0000000000,    0.0068723025,    0.0000000000,   -0.0000000000,    0.0000000000,    0.0414950408,    0.0000000000,    0.0076539955,    0.0000000000,   -0.0000000000,    0.0000000000,    0.0543480977,    0.0000000000 ]
  - [   -0.0012609482,   -0.0000000000,    0.0000000000,   -0.0000000000,   -0.0102590197,   -0.0000000000,    0.2883273435,   -0.0000000000,    0.0000000000,    0.0000000000,   -0.0146048067,    0.0000000000,    0.0006765227,    0.0000000000,    0.0000000000,    0.0000000000,    0.0055889486,    0.0000000000,   -0.0003161567,    0.0000000000,   -0.0000000000,    0.0000000000,    0.0048797212,    0.0000000000,    0.0003369995,    0.0000000000,    0.0000000000,    0.0000000000,   -0.0042247884,    0.0000000000,    0.0004889398,    0.0000000000,   -0.0000000000,    0.0000000000,   -0.0050247146,    0.0000000000,   -0.0092317417,    0.0000000000,    0.0000000000,    0.0000000000,   -0.0152828131,    0.0000000000,   -0.0418326128,    0.0000000000,    0.0000000000,    0.0000000000,   -0.0003988338,    0.0000000000,    0.0048638156,    0.0000000000,    0.0000000000,    0.0000000000,    0.0003435435,    0.0000000000,   -0.5803449705,    0.0000000000,   -0.0000000000,    0.0000000000,    0.0306962538,    0.0000000000,   -0.0015413828,    0.0000000000,   -0.0000000000,    0.0000000000,   -0.0020698572,    0.0000000000,    0.0001087954,    0.0000000000,    0.0000000000,    0.0000000000,   -0.0024878062,    0.0000000000,   -0.0007625497,    0.0000000000,   -0.0000000000,    0.0000000000,   -0.0034565778,    0.0000000000,   -0.0730496941,    0.0000000000,   -0.0000000000,    0.0000000000,    0.0451969287,    0.0000000000,   -0.0009218342,    0.0000000000,   -0.0000000000,    0.0000000000,   -0.0066805513,    0.0000000000,   -0.0019431214,    0.0000000000,   -0.0000000000,    0.0000000000,   -0.0013889302,    0.0000000000 ]
  - [   -0.0000000000,   -0.0000000000,   -0.0044996933,   -0.0000000000,   -0.0000000000,   -0.0000000000,    0.0000000000,   -0.0000000000,    0.1014950080,   -0.0000000000,   -0.0000000000,    0.0000000000,    0.0000000000,    0.0000000000,    0.0000272855,    0.0000000000,   -0.0000000000,    0.0000000000,   -0.0000000000,    0.0000000000,   -0.0003833501,    0.0000000000,    0.0000000000,    0.0000000000,   -0.0000000000,    0.0000000000,   -0.0000765392,    0.0000000000,    0.0000000000,    0.0000000000,    0.0000000000,    0.0000000000,   -0.0002063321,    0.0000000000,   -0.0000000000,    0.0000000000,    0.0000000000,    0.0000000000,    0.0003492196,    0.0000000000,    0.0000000000,    0.0000000000,   -0.0000000000,    0.0000000000,   -0.1789089608,    0.0000000000,    0.0000000000,    0.0000000000,    0.0000000000,    0.0000000000,    0.0005158115,    0.0000000000,    0.0000000000,    0.0000000000,   -0.0000000000,    0.0000000000,   -0.0036863171,    0.0000000000,    0.0000000000,    0.0000000000,    0.0000000000,    0.0000000000,   -0.0000113822,    0.0000000000,    0.0000000000,    0.0000000000,   -0.0000000000,    0.0000000000,    0.0002783109,    0.0000000000,    0.0000000000,    0.0000000000,    0.0000000000,    0.0000000000,   -0.0012188110,    0.0000000000,    0.0000000000,    0.0000000000,   -0.0000000000,    0.0000000000,   -0.0517764557,    0.0000000000,    0.0000000000,    0.0000000000,    0.0000000000,    0.0000000000,   -0.0000650546,    0.0000000000,    0.0000000000,    0.0000000000,   -0.0000000000,    0.0000000000,   -0.0017424030,    0.0000000000,    0.0000000000,    0.0000000000 ]
  - [   -0.0102590197,   -0.0000000000,    0.0000000000,   -0.0000000000,   -0.0402768028,   -0.0000000000,   -0.0146048067,   -0.0000000000,   -0.0000000000,   -0.0000000000,    0.6514286265,   -0.0000000000,   -0.0055889486,    0.0000000000,   -0.0000000000,    0.0000000000,   -0.0443601084,    0.0000000000,   -0.0048797212,    0.0000000000,   -0.0000000000,    0.0000000000,   -0.0431938620,    0.0000000000,   -0.0046011436,    0.0000000000,   -0.0000000000,    0.0000000000,    0.0381838034,    0.0000000000,   -0.0047401863,    0.0000000000,    0.0000000000,    0.0000000000,    0.0393964040,    0.0000000000,    0.0086470255,    0.0000000000,   -0.0000000000,    0.0000000000,    0.0084734400,    0.0000000000,   -0.0289045210,    0.0000000000,   -0.0000000000,    0.0000000000,   -0.1895380586,    0.0000000000,    0.0016332827,    0.0000000000,    0.0000000000,    0.0000000000,    0.0020713992,    0.0000000000,    0.0201150428,    0.0000000000,    0.0000000000,    0.0000000000,   -0.1474285156,    0.0000000000,    0.0118413155,    0.0000000000,    0.0000000000,    0.0000000000,    0.0161838819,    0.0000000000,    0.0100846729,    0.0000000000,    0.0000000000,    0.0000000000,    0.0167178644,    0.0000000000,   -0.0003906411,    0.0000000000,   -0.0000000000,    0.0000000000,    0.0436580487,    0.0000000000,    0.0582783545,    0.0000000000,    0.0000000000,    0.0000000000,   -1.2059092768,    0.0000000000,    0.0076539955,    0.0000000000,    0.0000000000,    0.0000000000,    0.0543480977,    0.0000000000,    0.0068723025,    0.0000000000,    0.0000000000,    0.0000000000,    0.0414950408,    0.0000000000 ]
  - [   -0.0003161567,   -0.0000000000,   -0.0000000000,   -0.0000000000,   -0.0048797212,   -0.0000000000,    0.0006765227,   -0.0000000000,    0.0000000000,   -0.0000000000,   -0.0055889486,   -0.0000000000,    0.2883273435,   -0.0000000000,    0.0000000000,    0.0000000000,    0.0146048067,    0.0000000000,   -0.0012609482,    0.0000000000,   -0.0000000000,    0.0000000000,    0.0102590197,    0.0000000000,   -0.0418326128,    0.0000000000,   -0.0000000000,    0.0000000000,    0.0003988338,    0.0000000000,   -0.0092317417,    0.0000000000,   -0.0000000000,    0.0000000000,    0.0152828131,    0.0000000000,    0.0004889398,    0.0000000000,    0.0000000000,    0.0000000000,    0.0050247146,    0.0000000000,    0.0003369995,    0.0000000000,   -0.0000000000,    0.0000000000,    0.0042247884,    0.0000000000,    0.0001087954,    0.0000000000,   -0.0000000000,    0.0000000000,    0.0024878062,    0.0000000000,   -0.0015413828,    0.0000000000,    0.0000000000,    0.0000000000,    0.0020698572,    0.0000000000,   -0.5803449705,    0.0000000000,   -0.0000000000,    0.0000000000,   -0.0306962538,    0.0000000000,    0.0048638156,    0.0000000000,   -0.0000000000,    0.0000000000,   -0.0003435435,    0.0000000000,   -0.0019431214,    0.0000000000,    0.0000000000,    0.0000000000,    0.0013889302,    0.0000000000,   -0.0009218342,    0.0000000000,    0.0000000000,    0.0000000000,    0.0066805513,    0.0000000000,   -0.0730496941,    0.0000000000,   -0.0000000000,    0.0000000000,   -0.0451969287,    0.0000000000,   -0.0007625497,    0.0000000000,    0.0000000000,    0.0000000000,    0.0034565778,    0.0000000000 ]
  - [   -0.0000000000,   -0.0000000000,   -0.0003833501,   -0.0000000000,    0.0000000000,   -0.0000000000,    0.0000000000,   -0.0000000000,    0.0000272855,   -0.0000000000,   -0.0000000000,   -0.0000000000,    0.0000000000,   -0.0000000000,    0.1014950080,   -0.0000000000,   -0.0000000000,    0.0000000000,    0.0000000000,    0.0000000000,   -0.0044996933,    0.0000000000,   -0.0000000000,    0.0000000000,   -0.0000000000,    0.0000000000,   -0.1789089608,    0.0000000000,    0.0000000000,    0.0000000000,   -0.0000000000,    0.0000000000,    0.0003492196,    0.0000000000,    0.0000000000,    0.0000000000,   -0.0000000000,    0.0000000000,   -0.0002063321,    0.0000000000,    0.0000000000,    0.0000000000,    0.0000000000,    0.0000000000,   -0.0000765392,    0.0000000000,    0.0000000000,    0.0000000000,    0.0000000000,    0.0000000000,    0.0002783109,    0.0000000000,    0.0000000000,    0.0000000000,   -0.0000000000,    0.0000000000,   -0.0000113822,    0.0000000000,    0.0000000000,    0.0000000000,   -0.0000000000,    0.0000000000,   -0.0036863171,    0.0000000000,   -0.0000000000,    0.0000000000,   -0.0000000000,    0.0000000000,    0.0005158115,    0.0000000000,   -0.0000000000,    0.0000000000,    0.0000000000,    0.0000000000,   -0.0017424030,    0.0000000000,   -0.0000000000,    0.0000000000,   -0.0000000000,    0.0000000000,   -0.0000650546,    0.0000000000,    0.0000000000,    0.0000000000,   -0.0000000000,    0.0000000000,   -0.0517764557,    0.0000000000,   -0.0000000000,    0.0000000000,   -0.0000000000,    0.0000000000,   -0.0012188110,    0.0000000000,   -0.0000000000,    0.0000000000 ]
  - [    0.0048797212,   -0.0000000000,   -0.0000000000,   -0.0000000000,   -0.0431938620,   -0.0000000000,    0.0055889486,   -0.0000000000,   -0.0000000000,   -0.0000000000,   -0.0443601084,   -0.0000000000,    0.0146048067,   -0.0000000000,   -0.0000000000,   -0.0000000000,    0.6514286265,   -0.0000000000,    0.0102590197,    0.0000000000,    0.0000000000,    0.0000000000,   -0.0402768028,    0.0000000000,    0.0289045210,    0.0000000000,    0.0000000000,    0.0000000000,   -0.1895380586,    0.0000000000,   -0.0086470255,    0.0000000000,   -0.0000000000,    0.0000000000,    0.0084734400,    0.0000000000,    0.0047401863,    0.0000000000,    0.0000000000,    0.0000000000,    0.0393964040,    0.0000000000,    0.0046011436,    0.0000000000,    0.0000000000,    0.0000000000,    0.0381838034,    0.0000000000,   -0.0100846729,    0.0000000000,   -0.0000000000,    0.0000000000,    0.0167178644,    0.0000000000,   -0.0118413155,    0.0000000000,   -0.0000000000,    0.0000000000,    0.0161838819,    0.0000000000,   -0.0201150428,    0.0000000000,   -0.0000000000,    0.0000000000,   -0.1474285156,    0.0000000000,   -0.0016332827,    0.0000000000,    0.0000000000,    0.0000000000,    0.0020713992,    0.0000000000,   -0.0068723025,    0.0000000000,    0.0000000000,    0.0000000000,    0.0414950408,    0.0000000000,   -0.0076539955,    0.0000000000,    0.0000000000,    0.0000000000,    0.0543480977,    0.0000000000,   -0.0582783545,    0.0000000000,   -0.0000000000,    0.0000000000,   -1.2059092768,    0.0000000000,    0.0003906411,    0.0000000000,    0.0000000000,    0.0000000000,    0.0436580487,    0.0000000000 ]
  - [    0.0006765227,   -0.0000000000,    0.0000000000,   -0.0000000000,   -0.0055889486,   -0.0000000000,   -0.0003161567,   -0.0000000000,   -0.0000000000,   -0.0000000000,   -0.0048797212,   -0.0000000000,   -0.0012609482,   -0.0000000000,    0.0000000000,   -0.0000000000,    0.0102590197,   -0.0000000000,    0.2883273435,   -0.0000000000,    0.0000000000,    0.0000000000,    0.0146048067,    0.0000000000,   -0.0092317417,    0.0000000000,    0.0000000000,    0.0000000000,    0.0152828131,    0.0000000000,   -0.0418326128,    0.0000000000,    0.0000000000,    0.0000000000,    0.0003988338,    0.0000000000,    0.0003369995,    0.0000000000,    0.0000000000,    0.0000000000,    0.0042247884,    0.0000000000,    0.0004889398,    0.0000000000,   -0.0000000000,    0.0000000000,    0.0050247146,    0.0000000000,   -0.0015413828,    0.0000000000,   -0.0000000000,    0.0000000000,    0.0020698572,    0.0000000000,    0.0001087954,    0.0000000000,    0.0000000000,    0.0000000000,    0.0024878062,    0.0000000000,    0.0048638156,    0.0000000000,   -0.0000000000,    0.0000000000,   -0.0003435435,    0.0000000000,   -0.5803449705,    0.0000000000,   -0.0000000000,    0.0000000000,   -0.0306962538,    0.0000000000,   -0.0009218342,    0.0000000000,   -0.0000000000,    0.0000000000,    0.0066805513,    0.0000000000,   -0.0019431214,    0.0000000000,   -0.0000000000,    0.0000000000,    0.0013889302,    0.0000000000,   -0.0007625497,    0.0000000000,   -0.0000000000,    0.0000000000,    0.0034565778,    0.0000000000,   -0.0730496941,    0.0000000000,   -0.0000000000,    0.0000000000,   -0.0451969287,    0.0000000000 ]
  - [    0.0000000000,   -0.0000000000,    0.0000272855,   -0.0000000000,    0.0000000000,   -0.0000000000,   -0.0000000000,   -0.0000000000,   -0.0003833501,   -0.0000000000,   -0.0000000000,   -0.0000000000,   -0.0000000000,   -0.0000000000,   -0.0044996933,   -0.0000000000,    0.0000000000,   -0.0000000000,    0.0000000000,   -0.0000000000,    0.1014950080,   -0.0000000000,    0.0000000000,    0.0000000000,    0.0000000000,    0.0000000000,    0.0003492196,    0.0000000000,   -0.0000000000,    0.0000000000,   -0.0000000000,    0.0000000000,   -0.1789089608,    0.0000000000,   -0.0000000000,    0.0000000000,   -0.0000000000,    0.0000000000,   -0.0000765392,    0.0000000000,   -0.0000000000,    0.0000000000,    0.0000000000,    0.0000000000,   -0.0002063321,    0.0000000000,    0.0000000000,    0.0000000000,    0.0000000000,    0.0000000000,   -0.0000113822,    0.0000000000,   -0.0000000000,    0.0000000000,   -0.0000000000,    0.0000000000,    0.0002783109,    0.0000000000,    0.0000000000,    0.0000000000,    0.0000000000,    0.0000000000,    0.0005158115,    0.0000000000,   -0.0000000000,    0.0000000000,   -0.0000000000,    0.0000000000,   -0.0036863171,    0.0000000000,   -0.0000000000,    0.0000000000,    0.0000000000,    0.0000000000,   -0.0000650546,    0.0000000000,   -0.0000000000,    0.0000000000,   -0.0000000000,    0.0000000000,   -0.0017424030,    0.0000000000,    0.0000000000,    0.0000000000,    0.0000000000,    0.0000000000,   -0.0012188110,    0.0000000000,    0.0000000000,    0.0000000000,   -0.0000000000,    0.0000000000,   -0.0517764557,    0.0000000000,   -0.0000000000,    0.0000000000 ]
  - [    0.0055889486,   -0.0000000000,    0.0000000000,   -0.0000000000,   -0.0443601084,   -0.0000000000,    0.0048797212,   -0.0000000000,    0.0000000000,   -0.0000000000,   -0.0431938620,   -0.0000000000,    0.0102590197,   -0.0000000000,   -0.0000000000,   -0.0000000000,   -0.0402768028,   -0.0000000000,    0.0146048067,   -0.0000000000,    0.0000000000,   -0.0000000000,    0.6514286265,   -0.0000000000,   -0.0086470255,    0.0000000000,    0.0000000000,    0.0000000000,    0.0084734400,    0.0000000000,    0.0289045210,    0.0000000000,   -0.0000000000,    0.0000000000,   -0.1895380586,    0.0000000000,    0.0046011436,    0.0000000000,    0.0000000000,    0.0000000000,    0.0381838034,    0.0000000000,    0.0047401863,    0.0000000000,   -0.0000000000,    0.0000000000,    0.0393964040,    0.0000000000,   -0.0118413155,    0.0000000000,   -0.0000000000,    0.0000000000,    0.0161838819,    0.0000000000,   -0.0100846729,    0.0000000000,    0.0000000000,    0.0000000000,    0.0167178644,    0.0000000000,   -0.0016332827,    0.0000000000,   -0.0000000000,    0.0000000000,    0.0020713992,    0.0000000000,   -0.0201150428,    0.0000000000,    0.0000000000,    0.0000000000,   -0.1474285156,    0.0000000000,   -0.0076539955,    0.0000000000,   -0.0000000000,    0.0000000000,    0.0543480977,    0.0000000000,   -0.0068723025,    0.0000000000,   -0.0000000000,    0.0000000000,    0.0414950408,    0.0000000000,    0.0003906411,    0.0000000000,   -0.0000000000,    0.0000000000,    0.0436580487,    0.0000000000,   -0.0582783545,    0.0000000000,   -0.0000000000,    0.0000000000,   -1.2059092768,    0.0000000000 ]
  - [    0.0004889398,   -0.0000000000,   -0.0000000000,   -0.0000000000,   -0.0047401863,   -0.0000000000,    0.0003369995,   -0.0000000000,   -0.0000000000,   -0.0000000000,   -0.0046011436,   -0.0000000000,   -0.0418326128,   -0.0000000000,   -0.0000000000,   -0.0000000000,    0.0289045210,   -0.0000000000,   -0.0092317417,   -0.0000000000,    0.0000000000,   -0.0000000000,   -0.0086470255,   -0.0000000000,    0.4120937458,   -0.0000000000,   -0.0000000000,    0.0000000000,   -0.0819660935,    0.0000000000,    0.0210528023,    0.0000000000,   -0.0000000000,    0.0000000000,   -0.0022857115,    0.0000000000,    0.0006352646,    0.0000000000,   -0.0000000000,    0.0000000000,    0.0041701369,    0.0000000000,    0.0004753645,    0.0000000000,   -0.0000000000,    0.0000000000,    0.0042003349,    0.0000000000,   -0.0006292549,    0.0000000000,   -0.0000000000,    0.0000000000,    0.0016853329,    0.0000000000,   -0.0008236461,    0.0000000000,    0.0000000000,    0.0000000000,    0.0018277385,    0.0000000000,   -0.2725905672,    0.0000000000,   -0.0000000000,    0.0000000000,    0.0048784366,    0.0000000000,   -0.0524213669,    0.0000000000,    0.0000000000,    0.0000000000,    0.0000054864,    0.0000000000,   -0.0018201989,    0.0000000000,   -0.0000000000,    0.0000000000,    0.0050621183,    0.0000000000,   -0.0007517877,    0.0000000000,   -0.0000000000,    0.0000000000,    0.0050004928,    0.0000000000,    0.0160628912,    0.0000000000,    0.0000000000,    0.0000000000,    0.0136673427,    0.0000000000,    0.0019066522,    0.0000000000,   -0.0000000000,    0.0000000000,    0.0170088934,    0.0000000000 ]
  - [    0.0000000000,   -0.0000000000,   -0.0002063321,   -0.0000000000,   -0.0000000000,   -0.0000000000,    0.0000000000,   -0.0000000000,   -0.0000765392,   -0.0000000000,   -0.0000000000,   -0.0000000000,   -0.0000000000,   -0.0000000000,   -0.1789089608,   -0.0000000000,    0.0000000000,   -0.0000000000,    0.0000000000,   -0.0000000000,    0.0003492196,   -0.0000000000,    0.0000000000,   -0.0000000000,   -0.0000000000,   -0.0000000000,    1.0378688171,   -0.0000000000,   -0.0000000000,    0.0000000000,    0.0000000000,    0.0000000000,   -0.2401678596,    0.0000000000,   -0.0000000000,    0.0000000000,   -0.0000000000,    0.0000000000,   -0.0001792868,    0.0000000000,   -0.0000000000,    0.0000000000,    0.0000000000,    0.0000000000,   -0.0002270145,    0.0000000000,   -0.0000000000,    0.0000000000,    0.0000000000,    0.0000000000,    0.0006805421,    0.0000000000,    0.0000000000,    0.0000000000,   -0.0000000000,    0.0000000000,    0.0000934042,    0.0000000000,    0.0000000000,    0.0000000000,    0.0000000000,    0.0000000000,   -0.3277401205,    0.0000000000,    0.0000000000,    0.0000000000,   -0.0000000000,    0.0000000000,    0.0065064729,    0.0000000000,    0.0000000000,    0.0000000000,    0.0000000000,    0.0000000000,   -0.0000423715,    0.0000000000,    0.0000000000,    0.0000000000,   -0.0000000000,    0.0000000000,   -0.0002316186,    0.0000000000,    0.0000000000,    0.0000000000,    0.0000000000,    0.0000000000,   -0.0326820894,    0.0000000000,   -0.0000000000,    0.0000000000,   -0.0000000000,    0.0000000000,   -0.0061718317,    0.0000000000,    0.0000000000,    0.0000000000 ]
  - [   -0.0050247146,   -0.0000000000,   -0.0000000000,   -0.0000000000,    0.0393964040,   -0.0000000000,   -0.0042247884,   -0.0000000000,    0.0000000000,   -0.0000000000,    0.0381838034,   -0.0000000000,    0.0003988338,   -0.0000000000,    0.0000000000,   -0.0000000000,   -0.1895380586,   -0.0000000000,    0.0152828131,   -0.0000000000,   -0.0000000000,   -0.0000000000,    0.0084734400,   -0.0000000000,   -0.0819660935,   -0.0000000000,   -0.0000000000,   -0.0000000000,    0.5651015663,   -0.0000000000,   -0.0022857115,    0.0000000000,    0.0000000000,    0.0000000000,   -0.0393859770,    0.0000000000,   -0.0041701369,    0.0000000000,   -0.0000000000,    0.0000000000,   -0.0332681851,    0.0000000000,   -0.0042003349,    0.0000000000,    0.0000000000,    0.0000000000,   -0.0341871883,    0.0000000000,    0.0109248849,    0.0000000000,    0.0000000000,    0.0000000000,   -0.0142758322,    0.0000000000,    0.0090244771,    0.0000000000,    0.0000000000,    0.0000000000,   -0.0142161269,    0.0000000000,    0.0514329377,    0.0000000000,    0.0000000000,    0.0000000000,    0.0816715627,    0.0000000000,   -0.0096946474,    0.0000000000,   -0.0000000000,    0.0000000000,   -0.0369413384,    0.0000000000,    0.0081225595,    0.0000000000,    0.0000000000,    0.0000000000,   -0.0498372439,    0.0000000000,    0.0052519168,    0.0000000000,   -0.0000000000,    0.0000000000,   -0.0445287011,    0.0000000000,    0.0265395875,    0.0000000000,    0.0000000000,    0.0000000000,   -0.0447868670,    0.0000000000,   -0.0247546205,    0.0000000000,    0.0000000000,    0.0000000000,   -0.0819872620,    0.0000000000 ]
  - [    0.0003369995,   -0.0000000000,    0.0000000000,   -0.0000000000,   -0.0046011436,   -0.0000000000,    0.0004889398,   -0.0000000000,    0.0000000000,   -0.0000000000,   -0.0047401863,   -0.0000000000,   -0.0092317417,   -0.0000000000,   -0.0000000000,   -0.0000000000,   -0.0086470255,   -0.0000000000,   -0.0418326128,   -0.0000000000,   -0.0000000000,   -0.0000000000,    0.0289045210,   -0.0000000000,    0.0210528023,   -0.0000000000,    0.0000000000,   -0.0000000000,   -0.0022857115,   -0.0000000000,    0.4120937458,   -0.0000000000,    0.0000000000,    0.0000000000,   -0.0819660935,    0.0000000000,    0.0004753645,    0.0000000000,    0.0000000000,    0.0000000000,    0.0042003349,    0.0000000000,    0.0006352646,    0.0000000000,    0.0000000000,    0.0000000000,    0.0041701369,    0.0000000000,   -0.0008236461,    0.0000000000,   -0.0000000000,    0.0000000000,    0.0018277385,    0.0000000000,   -0.0006292549,    0.0000000000,   -0.0000000000,    0.0000000000,    0.0016853329,    0.0000000000,   -0.0524213669,    0.0000000000,   -0.0000000000,    0.0000000000,    0.0000054864,    0.0000000000,   -0.2725905672,    0.0000000000,   -0.0000000000,    0.0000000000,    0.0048784366,    0.0000000000,   -0.0007517877,    0.0000000000,    0.0000000000,    0.0000000000,    0.0050004928,    0.0000000000,   -0.0018201989,    0.0000000000,   -0.0000000000,    0.0000000000,    0.0050621183,    0.0000000000,    0.0019066522,    0.0000000000,    0.0000000000,    0.0000000000,    0.0170088934,    0.0000000000,    0.0160628912,    0.0000000000,   -0.0000000000,    0.0000000000,    0.0136673427,    0.0000000000 ]
  - [   -0.0000000000,   -0.0000000000,   -0.0000765392,   -0.0000000000,    0.0000000000,   -0.0000000000,   -0.0000000000,   -0.0000000000,   -0.0002063321,   -0.0000000000,    0.0000000000,   -0.0000000000,   -0.0000000000,   -0.0000000000,    0.0003492196,   -0.0000000000,   -0.0000000000,   -0.0000000000,    0.0000000000,   -0.0000000000,   -0.1789089608,   -0.0000000000,   -0.0000000000,   -0.0000000000,   -0.0000000000,   -0.0000000000,   -0.2401678596,   -0.0000000000,    0.0000000000,   -0.0000000000,    0.0000000000,   -0.0000000000,    1.0378688171,   -0.0000000000,   -0.0000000000,    0.0000000000,   -0.0000000000,    0.0000000000,   -0.0002270145,    0.0000000000,   -0.0000000000,    0.0000000000,    0.0000000000,    0.0000000000,   -0.0001792868,    0.0000000000,   -0.0000000000,    0.0000000000,    0.0000000000,    0.0000000000,    0.0000934042,    0.0000000000,    0.0000000000,    0.0000000000,   -0.0000000000,    0.0000000000,    0.0006805421,    0.0000000000,   -0.0000000000,    0.0000000000,    0.0000000000,    0.0000000000,    0.0065064729,    0.0000000000,    0.0000000000,    0.0000000000,   -0.0000000000,    0.0000000000,   -0.3277401205,    0.0000000000,   -0.0000000000,    0.0000000000,    0.0000000000,    0.0000000000,   -0.0002316186,    0.0000000000,   -0.0000000000,    0.0000000000,   -0.0000000000,    0.0000000000,   -0.0000423715,    0.0000000000,   -0.0000000000,    0.0000000000,    0.0000000000,    0.0000000000,   -0.0061718317,    0.0000000000,    0.0000000000,    0.0000000000,   -0.0000000000,    0.0000000000,   -0.0326820894,    0.0000000000,   -0.0000000000,    0.0000000000 ]
  - [   -0.0042247884,   -0.0000000000,   -0.0000000000,   -0.0000000000,    0.0381838034,   -0.0000000000,   -0.0050247146,   -0.0000000000,   -0.0000000000,   -0.0000000000,    0.0393964040,   -0.0000000000,    0.0152828131,   -0.0000000000,    0.0000000000,   -0.0000000000,    0.0084734400,   -0.0000000000,    0.0003988338,   -0.0000000000,   -0.0000000000,   -0.0000000000,   -0.1895380586,   -0.0000000000,   -0.0022857115,   -0.0000000000,   -0.0000000000,   -0.0000000000,   -0.0393859770,   -0.0000000000,   -0.0819660935,   -0.0000000000,   -0.0000000000,   -0.0000000000,    0.5651015663,   -0.0000000000,   -0.0042003349,    0.0000000000,    0.0000000000,    0.0000000000,   -0.0341871883,    0.0000000000,   -0.0041701369,    0.0000000000,   -0.0000000000,    0.0000000000,   -0.0332681851,    0.0000000000,    0.0090244771,    0.0000000000,    0.0000000000,    0.0000000000,   -0.0142161269,    0.0000000000,    0.0109248849,    0.0000000000,    0.0000000000,    0.0000000000,   -0.0142758322,    0.0000000000,   -0.0096946474,    0.0000000000,   -0.0000000000,    0.0000000000,   -0.0369413384,    0.0000000000,    0.0514329377,    0.0000000000,    0.0000000000,    0.0000000000,    0.0816715627,    0.0000000000,    0.0052519168,    0.0000000000,   -0.0000000000,    0.0000000000,   -0.0445287011,    0.0000000000,    0.0081225595,    0.0000000000,    0.0000000000,    0.0000000000,   -0.0498372439,    0.0000000000,   -0.0247546205,    0.0000000000,   -0.0000000000,    0.0000000000,   -0.0819872620,    0.0000000000,    0.0265395875,    0.0000000000,    0.0000000000,    0.0000000000,   -0.0447868670,    0.0000000000 ]